# vtk DataFile Version 4.0
vtk output
ASCII
DATASET STRUCTURED_POINTS
DIMENSIONS 100 100 1
SPACING 1 1 1
ORIGIN 0 0 0
POINT_DATA 10000
FIELD FieldData 6
I 1 10000 double
0.126642 0.164217 0.255249 0.44692 0.904509 1.02802 0.829011 0.721669 0.630884 
0.570553 0.537632 0.52545 0.533735 0.568755 0.640592 0.765519 0.979627 1.35707 
1.09875 0.836992 0.672232 0.564823 0.499968 0.468903 0.463286 0.475888 0.503006 
0.54651 0.612071 0.72388 0.803088 0.832177 0.903785 0.89447 0.901658 0.934821 
0.879385 0.838256 0.800932 0.764138 0.72441 0.679156 0.629681 0.581744 0.542915 
0.519493 0.514867 0.528079 0.553745 0.582967 0.604971 0.609853 0.591965 0.551463 
0.493839 0.427853 0.362692 0.305488 0.260045 0.226939 0.204487 0.189944 0.180432 
0.173441 0.167097 0.160448 0.153855 0.149488 0.152277 0.171613 0.22259 0.322542 
0.480192 0.687477 0.949223 1.39543 1.37058 0.588959 0.316241 0.178341 0.101676 
0.0643029 0.0484657 0.0428781 0.0416131 0.0417998 0.0420761 0.0418574 0.0406277 0.0381129 
0.0341838 0.0291736 0.0238995 0.0190392 0.0148527 0.0113471 0.00850017 0.00632152 0.004841 
0.00409073 0.141818 0.182715 0.278014 0.466052 0.88716 0.911546 1.09512 0.921614 
0.766797 0.671541 0.622605 0.600798 0.599619 0.625649 0.688616 0.805208 1.01215 
1.38431 1.12301 0.860581 0.696325 0.589111 0.525076 0.496132 0.493765 0.509714 
0.539052 0.583615 0.64883 0.721134 0.791444 0.885395 0.907248 0.954866 0.928637 
0.924926 0.932875 0.866306 0.830277 0.796206 0.75819 0.713273 0.66255 0.611887 
0.569417 0.542642 0.536337 0.550073 0.5782 0.610997 0.636321 0.642737 0.624376 
0.581798 0.521031 0.451365 0.382497 0.322003 0.273997 0.23922 0.216056 0.201774 
0.193398 0.188066 0.183286 0.177562 0.171179 0.166801 0.169812 0.189658 0.241859 
0.344644 0.508987 0.728957 0.996211 1.3851 1.02614 1.15422 0.409183 0.215262 
0.124139 0.0814501 0.0628153 0.0561494 0.0548202 0.0554604 0.0563799 0.0573886 0.0572119 
0.0548356 0.049504 0.0416857 0.0333339 0.0260526 0.0203167 0.0157267 0.0119761 0.00903241 
0.00698475 0.00593167 0.170386 0.21908 0.325438 0.502097 0.751923 1.10551 1.11378 
1.43385 1.03177 0.862572 0.788073 0.749845 0.727005 0.734477 0.779659 0.879965 
1.07287 1.43483 1.16794 0.905598 0.743993 0.635957 0.572045 0.545873 0.548733 
0.570422 0.602497 0.646209 0.740574 0.811907 0.83694 0.89621 0.969821 0.970634 
0.996188 0.961352 0.962982 0.905326 0.876344 0.847966 0.813338 0.770171 0.719546 
0.666904 0.619585 0.586776 0.576899 0.590992 0.623246 0.662709 0.694485 0.702992 
0.682862 0.635963 0.569402 0.493282 0.418043 0.351941 0.299642 0.26228 0.238583 
0.226132 0.22194 0.222272 0.222831 0.220159 0.213793 0.208035 0.209932 0.228299 
0.279421 0.382372 0.550176 0.777305 1.02284 1.22914 1.33694 1.35135 0.572849 
0.298196 0.177184 0.128574 0.102018 0.0906746 0.0882634 0.0898133 0.0920659 0.0977582 
0.101919 0.100607 0.0914193 0.0751718 0.0573441 0.0425127 0.0326246 0.0256264 0.0199174 
0.015256 0.0119047 0.010149 0.208418 0.272555 0.412337 0.632917 0.827926 1.00553 
1.24428 1.18091 1.3048 1.10708 1.03148 0.984786 0.914239 0.890617 0.905821 
0.981169 1.15274 1.5001 1.22496 0.967531 0.817921 0.703165 0.636173 0.61183 
0.62096 0.65208 0.691494 0.724454 0.786232 0.878309 0.932401 0.972128 0.970459 
1.01935 0.998283 1.01428 0.966634 0.973223 0.928462 0.903383 0.873411 0.835106 
0.790674 0.743709 0.693788 0.650872 0.633623 0.646104 0.68271 0.731752 0.774285 
0.782867 0.75734 0.703101 0.628725 0.544843 0.462304 0.389934 0.333082 0.293716 
0.271702 0.265975 0.274227 0.29131 0.309095 0.316383 0.3086 0.294865 0.289466 
0.297729 0.338308 0.429695 0.580657 0.785463 1.03753 1.43212 1.11171 0.871972 
1.11723 0.479646 0.288274 0.274161 0.205678 0.174482 0.16543 0.16628 0.167311 
0.187272 0.20441 0.205385 0.187813 0.151451 0.109822 0.0743841 0.054724 0.043552 
0.0344695 0.0266782 0.0208833 0.0178017 0.248996 0.33306 0.534208 0.988583 1.1462 
1.08008 1.14514 1.16527 1.1935 1.36364 1.37782 1.36074 1.16475 1.10423 
1.06382 1.10139 1.23886 1.56788 1.27561 1.03728 0.937114 0.787663 0.712459 
0.689263 0.705963 0.755696 0.825891 0.83026 0.895311 0.903077 0.968229 1.00041 
1.01683 1.02895 1.03821 1.00642 1.01952 0.98655 1.00104 0.953735 0.927461 
0.899345 0.875079 0.854816 0.806547 0.738621 0.704901 0.710833 0.750257 0.813042 
0.878909 0.878416 0.838795 0.771857 0.687748 0.596211 0.507284 0.429792 0.369876 
0.331198 0.316554 0.328867 0.369177 0.433361 0.511621 0.5472 0.531767 0.484436 
0.451224 0.424555 0.432987 0.496807 0.614687 0.775817 0.98735 1.37343 1.04144 
0.744873 0.652057 1.0267 0.548787 0.967164 0.494088 0.398945 0.367752 0.340416 
0.311764 0.374265 0.418588 0.405966 0.384834 0.310899 0.212613 0.138064 0.0906262 
0.0746359 0.0593715 0.0459449 0.0357901 0.0303634 0.286003 0.374531 0.585222 1.06074 
1.25747 1.14634 1.1778 1.19766 1.19507 1.21116 1.19672 1.19966 1.41106 
1.42349 1.259 1.24793 1.31487 1.62823 1.27675 1.08098 1.00956 0.8648 
0.794189 0.776859 0.802535 0.885683 0.895167 0.947559 0.963798 0.963228 0.94661 
0.958908 1.02397 0.981389 1.0359 1.0503 1.02699 1.05255 1.01379 0.991785 
0.969826 0.957675 0.977326 1.03692 0.992884 0.846263 0.785789 0.78065 0.819174 
0.898954 1.03801 0.992745 0.923714 0.834779 0.737929 0.639575 0.546447 0.466297 
0.406239 0.373112 0.375914 0.427086 0.54021 0.736645 1.045 1.1127 1.05544 
0.889835 0.773059 0.653385 0.585973 0.601189 0.674511 0.772995 0.872251 0.999776 
1.14124 0.700943 0.533171 0.573269 1.07492 0.742678 1.19332 1.20537 1.14418 
0.805712 0.56741 0.827203 0.909175 0.699075 0.815437 0.68976 0.360285 0.375393 
0.158615 0.136672 0.10191 0.0765553 0.0587087 0.0493536 0.335052 0.410545 0.571468 
0.822025 1.06031 1.3955 1.47084 1.27002 1.21139 1.13708 1.07673 1.10074 
1.12326 1.191 1.43616 1.4638 1.3263 1.52586 1.28876 1.10716 1.0582 
0.935897 0.883631 0.881727 0.907494 0.978567 1.00352 1.00182 0.957352 0.946316 
0.989536 0.987431 0.986141 0.963849 0.994646 1.0269 1.07997 1.09033 1.05071 
1.02298 0.996119 0.995106 1.07386 1.02722 0.986014 0.908875 0.858859 0.852394 
0.881623 0.941003 1.02842 1.11506 1.01318 0.889902 0.776178 0.672008 0.577143 
0.496909 0.4398 0.417764 0.450384 0.56878 0.823901 1.35243 2.33414 2.32058 
2.0911 1.60966 1.3166 1.01428 0.807802 0.756203 0.793183 0.848525 0.838384 
0.804831 0.752254 0.581642 0.482782 0.481643 0.635826 1.22005 0.858587 0.814795 
0.715015 0.700776 0.940332 0.843038 1.07153 1.04335 0.697216 0.477315 0.240454 
0.212255 0.38365 0.309912 0.178022 0.12214 0.0909638 0.075587 0.439928 0.502226 
0.631949 0.836712 1.03525 1.22481 1.3406 1.56218 1.54129 1.26971 1.07049 
1.0488 1.03679 1.0535 1.08256 1.108 1.13696 1.15614 1.19316 1.09483 
1.08027 1.00566 0.987699 1.0284 1.04598 1.02057 1.04465 1.00365 1.00754 
0.963664 0.982095 0.930541 0.928206 0.988348 1.03235 1.06119 1.05654 1.06598 
1.08902 1.03988 0.996928 0.974102 0.996865 1.07542 1.06857 0.974561 0.936449 
0.946486 0.968551 0.993222 1.03669 1.08346 1.12264 0.936481 0.8046 0.697584 
0.602846 0.523256 0.469808 0.460974 0.529641 0.731794 1.16449 2.04671 3.58557 
3.73499 3.3116 2.38473 1.9559 1.44399 1.06669 0.967698 1.01801 1.12462 
0.969698 0.787058 0.646557 0.535713 0.482327 0.490494 0.591846 0.860103 1.4388 
1.4593 0.899767 0.796834 0.883553 1.16359 1.0022 1.14929 0.785283 0.45903 
0.318221 0.187912 0.276306 0.420801 0.263989 0.179161 0.131292 0.108308 0.663078 
0.70914 0.812989 1.12711 1.30204 1.44617 1.40344 1.47246 1.4567 1.51908 
1.11225 1.00399 0.952601 0.943645 0.965103 0.991334 1.01637 1.01237 1.1261 
1.07013 1.05753 1.08904 1.10736 1.09164 1.12863 1.10513 1.05544 1.05105 
1.00474 1.00399 0.947247 0.905535 0.905949 0.946508 1.01721 1.01809 1.06257 
1.07712 1.05027 1.05409 0.978776 0.935386 0.919722 0.935219 0.961287 1.03958 
1.04919 1.10309 1.12923 1.08927 1.09012 1.09178 1.12979 0.950685 0.829146 
0.730655 0.636238 0.552984 0.497952 0.495697 0.588496 0.84511 1.35257 2.19068 
3.24807 3.18299 2.83551 2.36171 2.26764 1.68684 1.22873 1.2483 1.41195 
1.8471 1.33324 0.938165 0.667139 0.546824 0.512745 0.416615 0.682423 1.34715 
1.05765 1.11888 1.53307 1.06766 1.09803 1.34777 1.15054 1.09637 1.08798 
0.566381 0.363317 0.325174 0.283836 0.505629 0.340798 0.23734 0.175439 0.145292 
1.16558 1.1719 1.13293 1.00931 1.11192 1.32844 1.74202 1.84556 1.6425 
1.60345 1.16292 0.939601 0.842009 0.81698 0.86065 0.903445 0.936634 0.959258 
1.08942 1.06413 1.06044 1.08192 1.15428 1.19241 1.17943 1.122 1.11347 
1.04094 1.03967 0.989409 0.988476 0.914657 0.908243 0.967693 0.974339 1.01917 
0.996075 1.00162 1.03042 0.981648 0.965016 0.895137 0.86476 0.856987 0.869911 
0.895095 0.959207 1.00028 1.06597 1.19247 1.19912 1.11025 1.04625 0.955692 
0.880736 0.807285 0.705211 0.602705 0.531243 0.519283 0.609854 0.875953 1.41662 
2.32844 3.39198 2.04064 2.11138 1.78918 1.52269 0.424813 0.506779 1.41051 
1.67736 1.47814 1.44849 1.24595 0.75826 0.597093 0.572348 0.603615 0.560234 
0.786184 1.57736 1.72774 1.25399 1.75633 1.82976 1.44473 1.58708 1.48127 
1.06131 0.724855 0.527307 0.430006 0.358817 0.584795 0.411357 0.294572 0.221309 
0.18492 1.3284 1.30072 1.06397 1.05286 1.1421 1.44653 1.96477 2.13502 
2.20401 1.57044 1.18445 0.974187 0.864157 0.807616 0.776373 0.864869 0.905045 
1.02544 1.09446 1.10831 1.1103 1.09724 1.14205 1.25415 1.18757 1.18752 
1.14232 1.04569 1.00998 0.990171 1.0106 0.931448 0.913087 0.933714 0.986557 
0.963512 0.949189 0.938598 0.934482 0.94386 0.88808 0.853413 0.825222 0.811248 
0.820525 0.853603 0.910663 0.967361 1.02203 1.05481 1.08644 1.13042 1.03063 
1.01441 1.01581 0.998697 0.859075 0.699465 0.583706 0.53999 0.599357 0.820428 
1.29093 2.13024 3.61549 2.34671 1.08273 1.37064 1.27937 1.05349 1.02584 
0.433271 1.29356 1.18118 1.051 0.966387 0.78402 0.663255 0.653036 0.537749 
0.590661 0.852387 0.961013 1.74104 1.32987 1.40517 1.55379 2.25046 1.77882 
1.47345 1.36573 0.773841 0.598744 0.509674 0.43818 0.661036 0.479405 0.351671 
0.268678 0.226754 0.749961 0.852084 1.21626 1.35428 1.31742 1.73567 1.77026 
1.8461 1.84773 1.78333 1.24825 1.00265 0.87268 0.808617 0.802544 0.897231 
0.886299 0.991888 1.00306 1.08754 1.08249 1.1317 1.14885 1.23399 1.23689 
1.21598 1.13312 1.07472 1.04069 1.01905 1.02686 0.946934 0.921707 0.927431 
0.943129 0.936576 0.91318 0.887981 0.871021 0.857161 0.837671 0.815854 0.793968 
0.780581 0.785853 0.813785 0.855118 0.909764 0.954879 0.985592 1.01769 1.04571 
1.05549 1.13385 1.28297 1.43389 1.16225 0.871627 0.669564 0.570528 0.578255 
0.718354 1.03274 1.5311 2.08698 1.96055 1.53113 0.612944 1.11744 1.10563 
1.13169 1.09746 1.22993 1.08121 0.921526 0.794546 0.689795 0.676922 0.767828 
0.620979 0.664934 0.896231 1.02309 1.15765 1.94793 2.12864 2.37341 1.71864 
1.57654 1.60105 1.23676 0.867904 0.605766 0.570377 0.51772 0.735728 0.547694 
0.410578 0.318501 0.271198 0.438553 0.517725 0.711935 0.960715 1.44843 1.59702 
2.01497 2.16851 2.12656 1.61835 1.26014 1.04393 0.900603 0.820938 0.817563 
0.895562 0.864158 0.918206 0.959484 1.01016 1.09978 1.11047 1.18323 1.23541 
1.24587 1.23663 1.20292 1.16808 1.15233 1.09597 1.01541 0.95957 0.934647 
0.936341 0.943971 0.925076 0.888087 0.849601 0.823226 0.807018 0.794674 0.781894 
0.768852 0.760777 0.765391 0.783715 0.796705 0.854524 0.889571 0.91306 0.949243 
0.997997 1.08706 1.28117 1.66862 2.40849 1.63337 1.11274 0.786952 0.617111 
0.56888 0.632737 0.816278 1.10681 1.41431 1.54818 1.54917 1.27453 0.448165 
0.494003 0.530742 0.505839 1.23151 1.12096 0.934802 0.786603 0.702124 0.720745 
0.690973 0.808531 0.86375 0.946424 0.917856 1.21635 1.31675 1.6297 1.90302 
1.8637 1.79778 1.46695 1.17286 0.852502 0.729727 0.600548 0.608689 0.805298 
0.621049 0.47525 0.372533 0.318766 0.260054 0.323245 0.46309 0.690496 1.07598 
1.64629 1.76442 1.91144 2.0009 1.68086 1.34919 1.12253 0.958386 0.861337 
0.876211 0.862398 0.870523 0.978453 1.02288 1.00482 1.05116 1.13772 1.17752 
1.1501 1.14984 1.15143 1.20141 1.16326 1.12104 1.09927 1.04953 1.00385 
0.960326 0.961027 0.985747 0.924025 0.868096 0.817833 0.784479 0.766284 0.757379 
0.753 0.751232 0.753393 0.762335 0.781707 0.801995 0.806133 0.818723 0.832652 
0.884548 0.952331 1.09293 1.34187 1.79398 2.6214 1.9681 1.32477 0.90159 
0.669906 0.575257 0.584452 0.684481 0.860959 1.07154 1.25067 1.38519 1.45106 
1.5149 1.37921 1.41571 1.61836 1.48606 1.2348 1.01166 0.85153 0.77365 
0.816926 0.806081 0.705382 0.767308 0.856733 1.08841 1.11859 1.43923 1.82518 
1.71256 1.88265 1.79569 1.43233 1.12519 1.00033 0.834794 0.760313 0.786501 
0.826652 0.716666 0.554864 0.432975 0.369058 0.157706 0.213177 0.335386 0.540375 
0.855307 1.3187 1.96617 2.00905 1.97174 1.8514 1.47291 1.21356 1.03117 
0.907303 0.863971 0.907503 0.888204 0.980393 1.02973 1.06457 1.08608 1.07545 
1.09909 1.15607 1.16586 1.12573 1.13385 1.11834 1.09724 1.06598 1.03308 
1.01731 1.01126 1.0193 0.96923 0.921553 0.853695 0.794248 0.755185 0.734477 
0.727959 0.732547 0.746469 0.766833 0.782226 0.795097 0.813696 0.824722 0.827458 
0.80848 0.809547 0.869187 1.05672 1.28743 1.60376 2.00166 2.36572 1.45601 
0.971413 0.708793 0.586915 0.563342 0.61619 0.730896 0.886685 1.05463 1.21303 
1.33797 1.42535 1.46781 1.51717 1.55939 1.67384 1.38118 1.10345 0.928272 
0.825645 0.80121 0.807672 0.849423 0.79193 0.872997 0.976384 1.24308 1.29735 
1.54092 1.89897 1.85619 1.56844 1.6195 1.28965 1.19289 1.18843 1.10897 
0.910444 0.931809 0.914779 0.662913 0.498822 0.418471 0.110517 0.162536 0.27925 
0.47865 0.777552 1.19053 1.85607 1.89965 1.97421 1.74448 1.46477 1.2629 
1.09417 0.960659 0.882459 0.870504 0.922732 0.914827 0.948953 1.02821 1.03005 
1.10107 1.10495 1.07765 1.09581 1.15599 1.18181 1.14923 1.1272 1.09248 
1.04916 1.05524 1.02553 1.02223 1.01781 0.929589 0.850277 0.782759 0.737459 
0.713515 0.709064 0.724458 0.762529 0.822843 0.847315 0.836228 0.83819 0.830724 
0.812912 0.794322 0.796498 0.88072 1.02473 1.19664 1.37436 1.53333 1.69233 
1.26024 0.932951 0.711694 0.590885 0.552605 0.57991 0.659694 0.7788 0.921058 
1.06878 1.2027 1.31288 1.40436 1.48133 1.51563 1.50052 1.5751 1.17187 
0.99531 0.880351 0.822542 0.81429 0.855166 0.92186 1.00921 0.974738 1.23634 
1.39131 1.51461 1.44383 1.54368 1.5618 1.35896 1.36755 1.26748 1.22577 
1.17147 1.18178 1.12127 1.00182 0.730985 0.547112 0.456127 0.102541 0.155319 
0.276898 0.498507 0.852573 1.17935 1.51765 1.964 1.84683 1.63969 1.45229 
1.28556 1.13553 1.00333 0.9163 0.874437 0.874996 0.941122 0.961984 0.949062 
0.942139 0.972979 1.03356 1.00275 1.02716 1.09506 1.13315 1.13154 1.11328 
1.06816 1.07393 1.05159 1.06497 1.06673 1.04611 0.965376 0.872729 0.789172 
0.7336 0.704799 0.701316 0.727426 0.79964 0.97843 1.01312 0.910662 0.904558 
0.864194 0.821702 0.8003 0.816451 0.88322 0.99157 1.11096 1.20775 1.3427 
1.26067 1.08245 0.87149 0.695954 0.5862 0.542573 0.554975 0.61245 0.704517 
0.819773 0.945394 1.06839 1.18188 1.28915 1.39096 1.46335 1.47773 1.59563 
1.23698 1.05246 0.929715 0.852115 0.825031 0.859042 0.778119 0.998842 1.11398 
1.14894 1.31319 1.45528 1.4601 1.3665 1.26316 1.11835 1.23206 1.36472 
1.37782 1.25762 1.17067 1.03076 0.871524 0.692522 0.547283 0.470412 0.125799 
0.180885 0.31834 0.621121 1.29871 1.57929 1.50829 1.71072 1.97987 1.68683 
1.45517 1.30316 1.17185 1.04878 0.957088 0.900916 0.872585 0.86643 0.869373 
0.883875 0.914064 0.926983 0.999371 0.983293 1.01348 1.06909 1.07733 1.06721 
1.04982 1.06751 1.07344 1.06858 1.04301 1.03638 1.02632 1.0012 0.900104 
0.808107 0.743321 0.708795 0.702962 0.729543 0.796778 0.904232 0.938305 0.952059 
1.0597 0.946057 0.862401 0.818806 0.81991 0.867796 0.949428 1.03489 1.09084 
1.19606 1.13544 0.982061 0.818464 0.673803 0.575727 0.530731 0.533055 0.573703 
0.64366 0.7338 0.834732 0.938295 1.04151 1.14903 1.26516 1.37341 1.4248 
1.40447 1.4704 1.1096 0.967643 0.877504 0.83438 0.856788 0.901604 0.843654 
0.976013 1.19368 1.35564 1.30688 1.3501 1.22174 1.0823 0.980321 1.12233 
1.24396 1.33803 1.4184 1.31637 1.07127 0.848961 0.672558 0.544567 0.478001 
0.191925 0.246136 0.406553 0.731291 1.37388 1.61725 1.77198 1.82636 1.72496 
1.8364 1.45875 1.28689 1.17095 1.06667 0.988081 0.932631 0.897401 0.873434 
0.865421 0.882994 0.885981 0.902714 0.959518 0.989375 1.00734 1.06673 1.09537 
1.08299 1.02683 1.00325 1.00724 1.05325 1.05579 1.03976 1.04895 0.990197 
0.914794 0.826502 0.767014 0.728353 0.718113 0.742953 0.819689 0.99656 0.963591 
0.96359 1.06904 1.0907 1.03283 0.874766 0.836126 0.842306 0.894716 0.961756 
1.01173 1.09074 1.41673 0.957433 0.77821 0.650835 0.563306 0.51926 0.514324 
0.540821 0.591128 0.657968 0.734635 0.816615 0.904604 1.00612 1.12925 1.26344 
1.35924 1.37052 1.49917 1.13531 0.992967 0.899067 0.847745 0.838004 0.872635 
0.952794 1.03796 1.11578 1.17936 1.2638 1.21929 0.999791 0.89157 0.898551 
1.05824 1.22845 1.39268 1.44739 1.30328 1.19493 0.878709 0.676544 0.549382 
0.486376 0.370799 0.428871 0.744798 1.05991 1.24077 1.17431 1.46776 1.34171 
1.62412 1.46362 1.34021 1.22306 1.13823 1.07093 1.02035 0.973125 0.931618 
0.901375 0.88943 0.888332 0.906465 0.899929 0.941587 0.96187 1.01334 1.02358 
1.05168 1.05177 1.03557 0.9801 0.971513 0.996682 1.01182 1.01323 1.03495 
0.991195 0.939068 0.878948 0.816091 0.770581 0.752161 0.766431 0.819557 0.920187 
1.04793 0.961343 0.96464 0.977639 0.967865 1.02476 0.999131 0.847468 0.832057 
0.882219 0.96697 1.25034 1.01701 0.855657 0.733307 0.628455 0.553652 0.514022 
0.504903 0.519124 0.551083 0.59585 0.649387 0.710431 0.783389 0.879449 1.00989 
1.16592 1.297 1.3443 1.48406 1.14573 1.0093 0.940152 0.891336 0.856403 
0.870111 0.913756 0.995238 1.07589 1.08076 1.11604 1.09101 1.00888 0.862809 
0.926969 0.967108 1.24123 1.3192 1.35947 1.38326 1.22318 0.888108 0.681914 
0.556351 0.49522 0.82277 0.799758 0.651786 0.928765 0.784694 1.04161 0.889581 
0.902225 1.09123 1.09906 1.11545 1.16843 1.11033 1.08314 1.06206 1.02431 
0.982718 0.957356 0.943025 0.952514 0.923389 0.91186 0.924882 0.972132 1.00576 
1.03174 1.0056 1.00301 0.996999 0.975608 0.97009 1.02062 1.03749 1.00628 
1.0105 1.01667 0.973705 0.938058 0.888174 0.842161 0.815888 0.815713 0.845423 
0.908192 0.97154 0.949784 0.949499 0.972732 0.950449 0.937865 0.92628 0.969625 
0.835629 0.794522 0.85104 0.955898 0.87226 0.785314 0.693556 0.611309 0.554865 
0.527108 0.518662 0.521277 0.534251 0.556626 0.587356 0.628096 0.686737 0.77824 
0.916811 1.09497 1.26574 1.32532 1.2643 1.13228 1.03828 0.974802 0.93498 
0.913722 0.915047 0.92377 0.962949 1.01322 1.05608 1.10512 1.07845 0.916423 
0.899169 0.909906 0.921973 1.16265 1.33225 1.3799 1.37449 1.12396 0.866592 
0.681927 0.562348 0.503311 0.422895 0.477926 0.721058 0.514225 0.452792 0.52951 
0.549572 0.669071 0.761474 0.846079 0.9358 1.02602 1.11993 1.09206 1.11517 
1.07172 1.04533 1.02296 1.03822 1.0245 0.989833 0.967045 0.944114 0.973367 
0.980315 1.04283 0.999123 1.01775 1.03217 1.01883 0.982676 0.995311 1.04754 
1.04602 1.03941 1.01355 1.00866 0.989955 1.00366 0.942673 0.917732 0.905746 
0.912253 0.97234 1.09012 1.00674 0.994184 1.10314 0.998494 0.952231 0.914279 
0.878753 0.897302 0.771887 0.800046 1.11435 0.828713 0.732844 0.661846 0.60794 
0.583717 0.58596 0.587123 0.572956 0.559953 0.554812 0.559621 0.577614 0.618733 
0.69985 0.837534 1.03582 1.30721 1.48521 1.26954 1.14593 1.02603 0.974287 
0.942373 0.945579 0.950457 0.982087 1.01054 1.05126 1.08501 1.0808 1.08531 
1.00183 0.855835 0.851505 0.984741 1.08786 1.18843 1.19559 1.2185 1.16688 
0.88069 0.689281 0.5693 0.5107 0.300658 0.317073 0.367355 0.324385 0.317629 
0.348569 0.387537 0.470357 0.620666 0.682615 0.849201 0.980662 1.07278 1.10762 
1.1075 1.13613 1.12062 1.10737 1.05569 1.02942 1.03058 1.01092 0.98755 
0.979791 0.966294 1.0279 0.986727 0.979549 1.00511 0.993673 1.01669 0.994039 
1.00207 1.0022 1.05581 1.04641 1.00305 1.00732 1.0063 1.09685 1.08877 
1.06765 1.00255 1.08768 1.06086 1.11781 1.03172 1.10521 1.0837 1.04737 
0.982993 0.820106 0.762963 0.716271 0.718461 0.771874 0.724003 0.680434 0.642905 
0.632361 0.671619 0.752105 0.783282 0.725089 0.662752 0.613983 0.582236 0.568518 
0.583085 0.641056 0.755581 0.921982 1.09977 1.09823 1.22157 1.15211 1.05626 
1.00772 0.944403 0.923588 0.924106 0.94148 0.969042 1.00818 1.06815 1.09491 
1.0757 1.00548 0.977619 0.975443 1.0079 1.009 1.03806 1.06247 1.12189 
1.14329 0.904245 0.705526 0.577634 0.517034 0.32364 0.322257 0.32236 0.3071 
0.30139 0.309024 0.33173 0.381081 0.46173 0.550933 0.68282 0.867098 0.944879 
1.07177 1.11226 1.12751 1.10215 1.12333 1.1099 1.07767 1.01334 0.984707 
1.00936 0.980122 0.947673 0.984099 0.996662 0.963017 0.964605 0.997531 1.0166 
1.04971 1.03335 1.00436 1.0603 1.06073 1.02904 1.14034 1.03748 1.01346 
0.993166 0.997055 1.07724 1.0342 1.10713 1.05017 1.06549 0.940685 0.880277 
0.835009 0.786928 0.723196 0.68714 0.668842 0.668581 0.67834 0.667181 0.649821 
0.646539 0.696997 0.856791 1.14469 1.26288 1.06001 0.897437 0.771474 0.681404 
0.615799 0.589255 0.612867 0.690818 0.812141 0.943422 1.0268 1.05477 1.03807 
1.05522 1.04818 0.946733 0.912535 0.913774 0.941264 0.973426 1.00227 1.03061 
1.05594 1.02713 1.01651 0.958377 0.945008 0.974246 0.952539 0.957151 0.990044 
1.03292 1.07305 0.995819 0.759658 0.590769 0.521685 0.420436 0.413172 0.398012 
0.374345 0.351959 0.339333 0.342348 0.366504 0.415549 0.49004 0.600636 0.74698 
0.906318 0.968847 1.071 1.06804 1.10039 1.0839 1.09938 1.07715 1.03763 
0.982367 1.01064 0.973173 0.928168 0.941963 1.0001 0.95748 0.947683 0.965717 
0.979872 0.99677 1.01899 1.00337 1.05062 1.04611 1.00814 1.05906 1.11187 
1.02305 0.977711 0.965994 0.987706 1.00838 1.02092 1.07107 0.942997 0.852875 
0.779339 0.730044 0.68843 0.655206 0.639512 0.639951 0.649613 0.655349 0.651506 
0.647341 0.670266 0.780383 1.10519 1.92851 2.26223 1.62944 1.3269 1.07432 
0.897284 0.73904 0.648726 0.634032 0.680743 0.761404 0.846238 0.908485 0.937168 
0.950753 0.973645 0.98757 0.949051 0.918463 0.922559 0.974487 1.01473 1.03547 
1.03748 1.03592 1.02878 1.0041 0.96563 0.942064 0.919643 0.944048 0.931557 
1.00754 1.06537 1.08561 0.947505 0.901168 0.612609 0.523896 0.552845 0.543959 
0.52249 0.486258 0.443885 0.410853 0.395493 0.401191 0.431343 0.491443 0.591773 
0.758314 0.836873 0.961273 0.973628 1.05683 1.05799 1.08929 1.04465 1.01567 
0.994715 0.969824 1.00074 0.960226 0.915763 0.918345 0.965785 0.97404 0.952527 
1.00779 1.00913 0.99814 1.00057 1.01645 1.06908 1.04414 0.986381 0.990053 
1.04196 1.0996 1.01083 0.977683 0.997173 1.10828 1.0264 0.985297 0.895473 
0.816958 0.749365 0.697911 0.65391 0.629694 0.62887 0.650202 0.681285 0.689646 
0.684525 0.678275 0.698529 0.792499 1.03226 1.45791 1.77324 2.16784 2.02153 
1.55064 1.27869 0.9459 0.760848 0.714662 0.755066 0.818246 0.864072 0.88998 
0.90664 0.927178 0.968388 1.0428 0.998723 0.946415 0.934079 0.969302 1.01212 
1.02849 1.04081 1.07158 1.03449 0.94619 0.89782 0.877292 0.895371 0.908661 
0.906942 0.996085 1.0957 0.969405 0.92485 0.725442 0.578165 0.518812 0.658145 
0.65578 0.643875 0.611227 0.558195 0.508293 0.476564 0.467924 0.485857 0.536416 
0.625109 0.73013 0.872074 0.943324 0.924903 0.975437 1.11216 1.12016 1.04355 
1.00966 1.02376 0.967872 0.980076 0.931747 0.919945 0.906796 0.947501 0.985976 
0.969179 1.14438 1.05453 1.07044 1.04376 1.07023 1.14934 1.05688 0.982189 
0.959135 0.976101 1.0328 1.09507 1.01539 1.00787 1.10089 1.09184 1.04208 
0.913241 0.868068 0.815689 0.764223 0.6823 0.646655 0.657679 0.712239 0.797673 
0.800143 0.784108 0.756677 0.748295 0.790237 0.924779 1.16636 1.43531 1.67206 
2.05076 2.10342 1.86441 1.16563 0.880949 0.833504 0.911641 1.00346 1.03025 
1.01029 0.985955 0.966568 0.983225 1.04651 0.981169 0.957355 0.935692 0.966919 
0.996276 0.994069 0.982532 0.998869 1.00267 0.958169 0.907354 0.863013 0.812939 
0.820007 0.879149 0.928757 1.05718 0.881046 0.76933 0.646828 0.56059 0.519779 
0.676671 0.692703 0.714796 0.716794 0.67725 0.622988 0.579318 0.55824 0.566721 
0.615563 0.740163 0.785038 0.858415 0.905244 0.918912 0.943656 1.00244 1.05693 
1.10023 1.01536 1.03152 0.962623 0.929329 0.933006 0.896038 0.903055 0.926605 
1.09346 0.956762 1.00364 1.1824 1.22202 1.14713 1.1719 1.10286 1.12187 
1.00734 0.965455 0.957833 0.973223 1.02716 1.06164 0.983745 0.978046 0.963672 
0.940441 0.909497 1.07837 1.0724 1.0489 0.806497 0.702936 0.71061 0.812007 
1.07164 1.001 0.968144 0.893489 0.836846 0.807506 0.843571 0.955353 1.11803 
1.30043 1.50401 1.77027 1.47772 1.07676 0.896025 0.912608 1.07617 1.24721 
1.39151 1.354 1.2664 1.09442 1.01556 0.97786 0.863623 0.798567 0.83544 
0.984515 1.06015 1.05582 1.01906 1.01047 0.951198 0.888187 0.872376 0.796911 
0.752291 0.75492 0.800324 0.879092 1.02326 0.838804 0.717248 0.626253 0.565471 
0.535368 0.655597 0.692929 0.755813 0.805203 0.797101 0.752558 0.70298 0.669439 
0.663696 0.695787 0.779928 0.926213 0.993106 1.02473 1.01054 0.972969 0.987649 
1.0137 1.05686 1.00354 1.04151 0.985146 0.902805 0.876751 0.890334 0.862755 
0.90274 1.09463 0.934779 0.932702 0.997132 1.07249 1.26041 1.17901 1.08408 
1.10597 1.05335 1.0215 0.999041 0.963589 0.963995 0.987369 0.917141 0.91474 
0.900768 0.898126 0.908475 0.927336 0.887905 0.89465 1.01622 0.783823 0.751494 
0.833891 1.04638 1.25213 1.27203 1.08259 0.971949 0.847386 0.794491 0.812056 
0.880895 0.976863 1.07391 1.1478 1.06216 0.911518 0.834896 0.884779 1.13968 
1.89867 2.1414 2.16192 2.02087 1.31464 1.0866 0.974194 0.920125 0.911466 
0.928606 0.881195 0.975173 0.979144 1.00057 1 0.963405 0.897439 0.814081 
0.782737 0.720457 0.719146 0.764942 0.857148 1.00538 0.828897 0.715812 0.641919 
0.595038 0.571627 0.651826 0.706098 0.800745 0.889068 0.914709 0.888659 0.842516 
0.803829 0.78057 0.787238 0.859437 0.893282 0.929707 0.957801 1.00183 1.06527 
1.04726 1.00907 0.994531 0.981785 1.01843 0.946694 0.877986 0.838363 0.825501 
0.826147 0.878392 1.07796 0.919345 0.905262 0.944563 1.0303 1.26508 1.17187 
1.06537 1.05855 1.07978 1.06347 1.04299 1.00409 0.952022 0.93617 0.9114 
0.893163 0.885435 0.905169 0.941308 1.07009 0.875954 0.834076 0.847619 0.83002 
0.781753 0.810415 0.916769 1.08092 1.16894 1.27256 1.18633 0.881159 0.755176 
0.714672 0.725802 0.768103 0.821246 0.863141 0.854705 0.809053 0.761635 0.770427 
0.878325 1.10756 1.23425 1.30824 1.39078 1.62006 1.12679 0.956208 0.909965 
0.929391 0.957868 0.902739 0.976614 0.962782 0.948852 0.931406 0.919217 0.830649 
0.793333 0.72327 0.688212 0.698255 0.754996 0.864097 0.989748 0.840362 0.746658 
0.688711 0.652951 0.634234 0.689278 0.752048 0.860801 0.966881 1.01442 1.00787 
0.982986 0.98174 0.942525 0.883096 0.945827 0.957592 0.97529 0.979043 0.968055 
0.982594 1.0243 1.07285 1.01339 0.986568 0.973745 0.982596 0.881392 0.826479 
0.802264 0.805257 0.85641 1.04512 0.919668 0.914704 0.946037 1.0241 1.25839 
1.16273 1.0645 1.08895 1.03535 0.998427 0.991541 1.04859 0.983562 0.950401 
0.925022 0.910537 0.900916 0.916027 0.949809 1.11102 0.905178 0.851796 0.883183 
1.09563 0.868063 0.81346 0.833953 0.892 0.951386 1.03854 0.988742 0.802476 
0.694802 0.642326 0.629631 0.648255 0.689776 0.7449 0.79456 0.7914 0.727012 
0.686568 0.705248 0.777838 0.852312 0.928363 1.01112 1.08351 0.9268 0.893444 
0.900467 0.957735 1.00031 1.01856 1.06864 1.03595 0.991502 0.931464 0.867522 
0.785813 0.72967 0.683573 0.6655 0.685607 0.759718 0.929716 0.928011 0.878492 
0.813769 0.774401 0.749788 0.732107 0.763144 0.825406 0.928479 1.03255 1.08815 
1.09702 1.11789 1.04044 0.989401 0.949244 0.953616 1.00948 1.01949 0.98378 
0.994907 0.96743 0.971616 1.00744 1.09277 1.05552 0.986149 0.996815 0.905232 
0.839343 0.805678 0.802154 0.831277 0.901744 0.957484 0.990565 1.00788 1.04671 
1.25381 1.14299 1.05529 1.08766 1.07449 1.00068 0.971596 0.996005 1.07219 
1.02634 0.96834 0.989043 0.959927 0.965607 1.0017 0.985342 0.914227 0.878456 
0.902073 1.10119 0.977116 0.878148 0.835949 0.830044 0.830723 0.842581 0.806042 
0.717427 0.644011 0.597042 0.578657 0.590649 0.638291 0.734093 0.87301 0.857154 
0.733376 0.641457 0.614327 0.639941 0.697036 0.769709 0.831982 0.868955 0.850538 
0.858945 0.920131 1.03306 1.08715 1.15132 1.21554 1.16922 1.10152 1.00106 
0.887281 0.78484 0.712179 0.667034 0.651431 0.668602 0.726254 0.837893 0.993066 
1.01923 0.939512 0.922661 0.912138 0.881349 0.829775 0.897758 0.976177 1.05812 
1.10801 1.13853 1.14127 1.1392 1.10072 1.02708 1.00201 0.989901 0.99653 
1.05539 1.02403 0.998137 0.963754 0.985738 1.06068 1.07771 1.00626 0.984281 
0.979123 0.877209 0.834074 0.824885 0.848754 0.929531 1.21413 1.28335 1.23203 
1.12648 1.27633 1.09692 1.04007 1.02354 1.06233 1.05118 0.98931 0.986871 
1.0639 1.08534 1.1113 1.19562 1.0657 1.07832 1.20995 1.07187 0.983356 
0.924897 0.902521 0.955941 1.11606 1.05829 0.95388 0.909191 0.851494 0.832162 
0.794538 0.716054 0.642411 0.589008 0.566676 0.577338 0.637737 0.799804 1.17558 
0.950485 0.730509 0.604108 0.555682 0.567934 0.650273 0.762084 0.787843 0.771789 
0.787804 0.84412 0.955092 1.08325 0.792383 1.14909 1.33775 1.19903 1.11966 
1.0786 0.930918 0.803131 0.716161 0.665795 0.646512 0.656153 0.696139 0.767681 
0.861657 0.948174 1.09522 1.16514 1.19332 1.09978 0.832453 0.959336 1.01063 
1.0561 1.10572 1.12108 1.13232 1.127 1.10054 1.11432 1.09875 1.0328 
1.02442 1.10857 1.02685 0.995171 0.972815 0.988247 1.05766 1.06242 1.1047 
1.05646 1.02034 0.924607 0.905874 0.874739 0.888122 0.924984 1.02077 1.09074 
1.20158 1.30848 1.17683 1.14979 1.09533 0.999161 0.987673 1.03715 1.03919 
0.992103 0.998325 1.0357 1.09242 1.12575 1.27278 1.18859 1.23344 1.28425 
1.11447 1.02284 0.946793 0.936851 0.999938 0.945796 0.974913 0.979682 1.02396 
1.02738 0.99104 0.86674 0.752457 0.639141 0.592469 0.59224 0.645433 0.801657 
1.1537 1.0391 0.702112 0.56981 0.51199 0.538485 0.971441 1.30305 0.965029 
0.743524 0.727944 0.849094 0.999892 1.20847 1.27952 0.871733 1.33202 1.29247 
1.20699 1.00469 0.942218 0.815239 0.72811 0.677163 0.654113 0.656542 0.68574 
0.740729 0.814929 0.906151 1.02985 1.16181 1.31434 1.35359 0.724245 0.836042 
1.0267 1.06321 1.06086 1.1144 1.12823 1.11142 1.08144 1.09128 1.07898 
1.09858 1.05404 1.1076 1.08154 1.0603 1.01462 1.01194 1.07376 1.10759 
1.03409 1.06105 1.00847 0.995471 0.938408 0.97521 0.998048 0.968879 1.06887 
1.13149 1.15247 1.15564 1.17838 1.14708 1.08527 0.975513 0.940455 0.955393 
1.02066 1.03127 0.997351 1.09337 1.28387 1.14635 1.15601 1.12291 1.11454 